<?xml version="1.0" encoding="UTF-8"?>

<!-- generated on 2023-06-15 17:26:55 by Eclipse SUMO GUI Version v1_17_0+0039-e6e8160f541
<configuration xmlns:xsi="http://www.w3.org/2001/XMLSchema-instance" xsi:noNamespaceSchemaLocation="http://sumo.dlr.de/xsd/sumoConfiguration.xsd">

    <input>
        <net-file value="/home/abhi/Documents/v2v/data_cleaning/setting3/s3net.net.xml"/>
        <route-files value="/home/abhi/Documents/v2v/data_cleaning/setting3/s3rou.rou.xml"/>
    </input>

    <output>
        <netstate-dump value="/home/abhi/Documents/v2v/data_cleaning/log_files/nsd.txt"/>
    </output>

    <time>
        <step-length value="1"/>
    </time>

    <processing>
        <ignore-route-errors value="true"/>
    </processing>

    <report>
        <log value="/home/abhi/Documents/v2v/data_cleaning/log_files/my_log_file.txt"/>
    </report>

    <traci_server>
        <remote-port value="40113"/>
    </traci_server>

</configuration>
-->

<netstate xmlns:xsi="http://www.w3.org/2001/XMLSchema-instance" xsi:noNamespaceSchemaLocation="http://sumo.dlr.de/xsd/netstate_file.xsd">
    <timestep time="0.00"/>
    <timestep time="1.00"/>
    <timestep time="2.00">
        <edge id="E0">
            <lane id="E0_0"/>
            <lane id="E0_1"/>
            <lane id="E0_2"/>
            <lane id="E0_3">
                <vehicle id="taxi_v2.0" pos="3.10" speed="8.69"/>
            </lane>
        </edge>
    </timestep>
    <timestep time="3.00">
        <edge id="E0">
            <lane id="E0_0">
                <vehicle id="taxi_v3.0" pos="3.10" speed="13.95"/>
            </lane>
            <lane id="E0_1"/>
            <lane id="E0_2"/>
            <lane id="E0_3">
                <vehicle id="taxi_v2.0" pos="11.71" speed="8.61"/>
            </lane>
        </edge>
    </timestep>
    <timestep time="4.00">
        <edge id="E0">
            <lane id="E0_0">
                <vehicle id="taxi_v3.0" pos="16.70" speed="13.60"/>
            </lane>
            <lane id="E0_1">
                <vehicle id="taxi_v4.0" pos="3.10" speed="12.43"/>
            </lane>
            <lane id="E0_2"/>
            <lane id="E0_3">
                <vehicle id="taxi_v2.0" pos="20.04" speed="8.33"/>
            </lane>
        </edge>
    </timestep>
    <timestep time="5.00">
        <edge id="E0">
            <lane id="E0_0">
                <vehicle id="taxi_v3.0" pos="30.37" speed="13.67"/>
            </lane>
            <lane id="E0_1">
                <vehicle id="taxi_v4.0" pos="15.53" speed="12.43"/>
            </lane>
            <lane id="E0_2"/>
            <lane id="E0_3">
                <vehicle id="taxi_v5.0" pos="3.10" speed="8.34"/>
                <vehicle id="taxi_v2.0" pos="28.68" speed="8.64"/>
            </lane>
        </edge>
    </timestep>
    <timestep time="6.00">
        <edge id="E0">
            <lane id="E0_0">
                <vehicle id="taxi_v3.0" pos="44.30" speed="13.94"/>
            </lane>
            <lane id="E0_1">
                <vehicle id="taxi_v4.0" pos="27.83" speed="12.30"/>
            </lane>
            <lane id="E0_2"/>
            <lane id="E0_3">
                <vehicle id="taxi_v5.0" pos="11.35" speed="8.25"/>
                <vehicle id="taxi_v2.0" pos="37.14" speed="8.46"/>
            </lane>
        </edge>
    </timestep>
    <timestep time="7.00">
        <edge id="E0">
            <lane id="E0_0">
                <vehicle id="taxi_v7.0" pos="3.10" speed="13.76"/>
                <vehicle id="taxi_v3.0" pos="58.06" speed="13.76"/>
            </lane>
            <lane id="E0_1">
                <vehicle id="taxi_v4.0" pos="39.97" speed="12.14"/>
            </lane>
            <lane id="E0_2"/>
            <lane id="E0_3">
                <vehicle id="taxi_v5.0" pos="19.33" speed="7.98"/>
                <vehicle id="taxi_v2.0" pos="45.67" speed="8.53"/>
            </lane>
        </edge>
    </timestep>
    <timestep time="8.00">
        <edge id="E0">
            <lane id="E0_0">
                <vehicle id="taxi_v7.0" pos="17.64" speed="14.54"/>
                <vehicle id="taxi_v3.0" pos="71.78" speed="13.72"/>
            </lane>
            <lane id="E0_1">
                <vehicle id="taxi_v4.0" pos="52.14" speed="12.16"/>
            </lane>
            <lane id="E0_2">
                <vehicle id="taxi_v2.0" pos="54.10" speed="8.43"/>
            </lane>
            <lane id="E0_3">
                <vehicle id="taxi_v5.0" pos="27.32" speed="7.99"/>
            </lane>
        </edge>
    </timestep>
    <timestep time="9.00">
        <edge id="E0">
            <lane id="E0_0">
                <vehicle id="taxi_v8.0" pos="3.10" speed="14.45"/>
                <vehicle id="taxi_v7.0" pos="32.88" speed="15.24"/>
                <vehicle id="taxi_v3.0" pos="85.43" speed="13.66"/>
            </lane>
            <lane id="E0_1">
                <vehicle id="taxi_v4.0" pos="64.29" speed="12.15"/>
            </lane>
            <lane id="E0_2">
                <vehicle id="taxi_v2.0" pos="62.53" speed="8.43"/>
            </lane>
            <lane id="E0_3">
                <vehicle id="taxi_v5.0" pos="35.32" speed="8.00"/>
            </lane>
        </edge>
    </timestep>
    <timestep time="10.00">
        <edge id="E0">
            <lane id="E0_0">
                <vehicle id="taxi_v8.0" pos="17.66" speed="14.56"/>
                <vehicle id="taxi_v7.0" pos="48.62" speed="15.74"/>
                <vehicle id="taxi_v3.0" pos="99.17" speed="13.74"/>
            </lane>
            <lane id="E0_1">
                <vehicle id="taxi_v4.0" pos="76.34" speed="12.05"/>
            </lane>
            <lane id="E0_2">
                <vehicle id="taxi_v10.0" pos="3.10" speed="8.47"/>
                <vehicle id="taxi_v2.0" pos="71.00" speed="8.47"/>
            </lane>
            <lane id="E0_3">
                <vehicle id="taxi_v5.0" pos="43.34" speed="8.02"/>
            </lane>
        </edge>
    </timestep>
    <timestep time="11.00">
        <edge id="E0">
            <lane id="E0_0">
                <vehicle id="taxi_v8.0" pos="32.03" speed="14.38"/>
                <vehicle id="taxi_v7.0" pos="64.91" speed="16.29"/>
                <vehicle id="taxi_v3.0" pos="112.85" speed="13.68"/>
            </lane>
            <lane id="E0_1">
                <vehicle id="taxi_v4.0" pos="88.64" speed="12.31"/>
            </lane>
            <lane id="E0_2">
                <vehicle id="taxi_v10.0" pos="11.79" speed="8.69"/>
                <vehicle id="taxi_v5.0" pos="51.61" speed="8.28"/>
                <vehicle id="taxi_v2.0" pos="79.53" speed="8.53"/>
            </lane>
            <lane id="E0_3"/>
        </edge>
    </timestep>
    <timestep time="12.00">
        <edge id="E0">
            <lane id="E0_0">
                <vehicle id="taxi_v8.0" pos="46.57" speed="14.53"/>
                <vehicle id="taxi_v7.0" pos="81.28" speed="16.37"/>
                <vehicle id="taxi_v3.0" pos="126.58" speed="13.73"/>
            </lane>
            <lane id="E0_1">
                <vehicle id="taxi_v12.0" pos="3.10" speed="12.12"/>
                <vehicle id="taxi_v4.0" pos="100.76" speed="12.12"/>
            </lane>
            <lane id="E0_2">
                <vehicle id="taxi_v10.0" pos="20.53" speed="8.74"/>
                <vehicle id="taxi_v5.0" pos="59.80" speed="8.18"/>
                <vehicle id="taxi_v2.0" pos="87.91" speed="8.38"/>
            </lane>
            <lane id="E0_3"/>
        </edge>
    </timestep>
    <timestep time="13.00">
        <edge id="E0">
            <lane id="E0_0">
                <vehicle id="taxi_v8.0" pos="60.85" speed="14.28"/>
                <vehicle id="taxi_v7.0" pos="97.63" speed="16.35"/>
                <vehicle id="taxi_v3.0" pos="140.18" speed="13.60"/>
            </lane>
            <lane id="E0_1">
                <vehicle id="taxi_v12.0" pos="15.74" speed="12.64"/>
                <vehicle id="taxi_v4.0" pos="113.15" speed="12.40"/>
            </lane>
            <lane id="E0_2">
                <vehicle id="taxi_v10.0" pos="29.33" speed="8.81"/>
                <vehicle id="taxi_v5.0" pos="68.00" speed="8.20"/>
                <vehicle id="taxi_v2.0" pos="96.44" speed="8.53"/>
            </lane>
            <lane id="E0_3"/>
        </edge>
    </timestep>
    <timestep time="14.00">
        <edge id="E0">
            <lane id="E0_0">
                <vehicle id="taxi_v8.0" pos="75.29" speed="14.44"/>
                <vehicle id="taxi_v7.0" pos="113.90" speed="16.27"/>
                <vehicle id="taxi_v3.0" pos="154.12" speed="13.94"/>
            </lane>
            <lane id="E0_1">
                <vehicle id="taxi_v13.0" pos="3.10" speed="12.51"/>
                <vehicle id="taxi_v12.0" pos="28.51" speed="12.77"/>
                <vehicle id="taxi_v4.0" pos="125.40" speed="12.25"/>
            </lane>
            <lane id="E0_2">
                <vehicle id="taxi_v14.0" pos="3.10" speed="8.42"/>
                <vehicle id="taxi_v10.0" pos="37.97" speed="8.63"/>
                <vehicle id="taxi_v5.0" pos="76.15" speed="8.15"/>
                <vehicle id="taxi_v2.0" pos="104.92" speed="8.48"/>
            </lane>
            <lane id="E0_3"/>
        </edge>
    </timestep>
    <timestep time="15.00">
        <edge id="E0">
            <lane id="E0_0">
                <vehicle id="taxi_v8.0" pos="89.52" speed="14.23"/>
                <vehicle id="taxi_v7.0" pos="130.00" speed="16.10"/>
                <vehicle id="taxi_v3.0" pos="167.82" speed="13.70"/>
            </lane>
            <lane id="E0_1">
                <vehicle id="taxi_v13.0" pos="16.07" speed="12.97"/>
                <vehicle id="taxi_v12.0" pos="41.26" speed="12.75"/>
                <vehicle id="taxi_v2.0" pos="113.21" speed="8.30"/>
                <vehicle id="taxi_v4.0" pos="137.71" speed="12.31"/>
            </lane>
            <lane id="E0_2">
                <vehicle id="taxi_v14.0" pos="12.11" speed="9.01"/>
                <vehicle id="taxi_v10.0" pos="46.58" speed="8.61"/>
                <vehicle id="taxi_v5.0" pos="84.26" speed="8.12"/>
            </lane>
            <lane id="E0_3">
                <vehicle id="taxi_v15.0" pos="3.10" speed="6.67"/>
            </lane>
        </edge>
    </timestep>
    <timestep time="16.00">
        <edge id="E0">
            <lane id="E0_0">
                <vehicle id="taxi_v8.0" pos="103.86" speed="14.34"/>
                <vehicle id="taxi_v7.0" pos="146.32" speed="16.32"/>
                <vehicle id="taxi_v3.0" pos="181.42" speed="13.60"/>
            </lane>
            <lane id="E0_1">
                <vehicle id="taxi_v13.0" pos="28.90" speed="12.83"/>
                <vehicle id="taxi_v12.0" pos="54.13" speed="12.87"/>
                <vehicle id="taxi_v2.0" pos="121.76" speed="8.55"/>
                <vehicle id="taxi_v4.0" pos="149.87" speed="12.15"/>
            </lane>
            <lane id="E0_2">
                <vehicle id="taxi_v14.0" pos="21.87" speed="9.77"/>
                <vehicle id="taxi_v10.0" pos="55.30" speed="8.72"/>
                <vehicle id="taxi_v5.0" pos="92.46" speed="8.19"/>
            </lane>
            <lane id="E0_3">
                <vehicle id="taxi_v15.0" pos="9.64" speed="6.54"/>
            </lane>
        </edge>
    </timestep>
    <timestep time="17.00">
        <edge id="E0">
            <lane id="E0_0">
                <vehicle id="taxi_v8.0" pos="118.29" speed="14.44"/>
                <vehicle id="taxi_v7.0" pos="162.78" speed="16.46"/>
                <vehicle id="taxi_v3.0" pos="195.28" speed="13.86"/>
            </lane>
            <lane id="E0_1">
                <vehicle id="taxi_v13.0" pos="41.97" speed="13.07"/>
                <vehicle id="taxi_v12.0" pos="66.93" speed="12.80"/>
                <vehicle id="taxi_v5.0" pos="100.63" speed="8.17"/>
                <vehicle id="taxi_v2.0" pos="130.41" speed="8.65"/>
                <vehicle id="taxi_v4.0" pos="162.08" speed="12.22"/>
            </lane>
            <lane id="E0_2">
                <vehicle id="taxi_v14.0" pos="32.06" speed="10.18"/>
                <vehicle id="taxi_v10.0" pos="64.04" speed="8.74"/>
            </lane>
            <lane id="E0_3">
                <vehicle id="taxi_v16.0" pos="3.10" speed="6.50"/>
                <vehicle id="taxi_v15.0" pos="16.14" speed="6.50"/>
            </lane>
        </edge>
    </timestep>
    <timestep time="18.00">
        <edge id="E0">
            <lane id="E0_0">
                <vehicle id="taxi_v18.0" pos="3.10" speed="14.31"/>
                <vehicle id="taxi_v12.0" pos="79.92" speed="12.99"/>
                <vehicle id="taxi_v8.0" pos="132.47" speed="14.18"/>
                <vehicle id="taxi_v7.0" pos="179.19" speed="16.41"/>
                <vehicle id="taxi_v3.0" pos="208.92" speed="13.65"/>
            </lane>
            <lane id="E0_1">
                <vehicle id="taxi_v13.0" pos="55.06" speed="13.09"/>
                <vehicle id="taxi_v5.0" pos="108.91" speed="8.28"/>
                <vehicle id="taxi_v2.0" pos="139.03" speed="8.61"/>
                <vehicle id="taxi_v4.0" pos="174.13" speed="12.04"/>
            </lane>
            <lane id="E0_2">
                <vehicle id="taxi_v14.0" pos="42.57" speed="10.51"/>
                <vehicle id="taxi_v10.0" pos="73.02" speed="8.98"/>
            </lane>
            <lane id="E0_3">
                <vehicle id="taxi_v16.0" pos="10.10" speed="7.00"/>
                <vehicle id="taxi_v15.0" pos="22.56" speed="6.42"/>
            </lane>
        </edge>
    </timestep>
    <timestep time="19.00">
        <edge id="E0">
            <lane id="E0_0">
                <vehicle id="taxi_v18.0" pos="18.16" speed="15.06"/>
                <vehicle id="taxi_v12.0" pos="93.65" speed="13.74"/>
                <vehicle id="taxi_v8.0" pos="146.90" speed="14.43"/>
                <vehicle id="taxi_v4.0" pos="186.41" speed="12.29"/>
                <vehicle id="taxi_v7.0" pos="195.21" speed="16.02"/>
                <vehicle id="taxi_v3.0" pos="222.87" speed="13.94"/>
            </lane>
            <lane id="E0_1">
                <vehicle id="taxi_v13.0" pos="67.89" speed="12.83"/>
                <vehicle id="taxi_v5.0" pos="117.20" speed="8.29"/>
                <vehicle id="taxi_v2.0" pos="147.49" speed="8.46"/>
            </lane>
            <lane id="E0_2">
                <vehicle id="taxi_v14.0" pos="53.20" speed="10.63"/>
                <vehicle id="taxi_v10.0" pos="82.02" speed="9.00"/>
            </lane>
            <lane id="E0_3">
                <vehicle id="taxi_v16.0" pos="16.53" speed="6.43"/>
                <vehicle id="taxi_v15.0" pos="28.93" speed="6.37"/>
            </lane>
        </edge>
    </timestep>
    <timestep time="20.00">
        <edge id="E0">
            <lane id="E0_0">
                <vehicle id="taxi_v18.0" pos="33.63" speed="15.47"/>
                <vehicle id="taxi_v13.0" pos="80.66" speed="12.77"/>
                <vehicle id="taxi_v12.0" pos="108.12" speed="14.47"/>
                <vehicle id="taxi_v8.0" pos="161.36" speed="14.47"/>
                <vehicle id="taxi_v4.0" pos="198.74" speed="12.32"/>
                <vehicle id="taxi_v7.0" pos="210.82" speed="15.61"/>
                <vehicle id="taxi_v3.0" pos="236.65" speed="13.79"/>
            </lane>
            <lane id="E0_1">
                <vehicle id="taxi_v5.0" pos="125.21" speed="8.00"/>
                <vehicle id="taxi_v2.0" pos="156.02" speed="8.53"/>
            </lane>
            <lane id="E0_2">
                <vehicle id="taxi_v20.0" pos="3.10" speed="9.83"/>
                <vehicle id="taxi_v14.0" pos="63.88" speed="10.68"/>
                <vehicle id="taxi_v10.0" pos="91.00" speed="8.98"/>
            </lane>
            <lane id="E0_3">
                <vehicle id="taxi_v16.0" pos="22.86" speed="6.33"/>
                <vehicle id="taxi_v15.0" pos="35.45" speed="6.53"/>
            </lane>
        </edge>
    </timestep>
    <timestep time="21.00">
        <edge id="E0">
            <lane id="E0_0">
                <vehicle id="taxi_v21.0" pos="3.10" speed="13.43"/>
                <vehicle id="taxi_v18.0" pos="49.05" speed="15.42"/>
                <vehicle id="taxi_v13.0" pos="93.58" speed="12.92"/>
                <vehicle id="taxi_v12.0" pos="123.11" speed="14.98"/>
                <vehicle id="taxi_v2.0" pos="164.51" speed="8.48"/>
                <vehicle id="taxi_v8.0" pos="175.66" speed="14.29"/>
                <vehicle id="taxi_v4.0" pos="211.13" speed="12.39"/>
                <vehicle id="taxi_v7.0" pos="225.92" speed="15.10"/>
                <vehicle id="taxi_v3.0" pos="250.51" speed="13.86"/>
            </lane>
            <lane id="E0_1">
                <vehicle id="taxi_v10.0" pos="99.69" speed="8.69"/>
                <vehicle id="taxi_v5.0" pos="133.51" speed="8.31"/>
            </lane>
            <lane id="E0_2">
                <vehicle id="taxi_v20.0" pos="13.35" speed="10.25"/>
                <vehicle id="taxi_v15.0" pos="41.93" speed="6.48"/>
                <vehicle id="taxi_v14.0" pos="74.57" speed="10.69"/>
            </lane>
            <lane id="E0_3">
                <vehicle id="taxi_v16.0" pos="29.28" speed="6.42"/>
            </lane>
        </edge>
    </timestep>
    <timestep time="22.00">
        <edge id="E0">
            <lane id="E0_0">
                <vehicle id="taxi_v21.0" pos="17.07" speed="13.97"/>
                <vehicle id="taxi_v18.0" pos="64.68" speed="15.63"/>
                <vehicle id="taxi_v13.0" pos="106.35" speed="12.77"/>
                <vehicle id="taxi_v12.0" pos="138.58" speed="15.48"/>
                <vehicle id="taxi_v2.0" pos="172.96" speed="8.46"/>
                <vehicle id="taxi_v8.0" pos="190.02" speed="14.36"/>
                <vehicle id="taxi_v4.0" pos="223.43" speed="12.30"/>
                <vehicle id="taxi_v3.0" pos="264.09" speed="13.58"/>
            </lane>
            <lane id="E0_1">
                <vehicle id="taxi_v10.0" pos="108.40" speed="8.71"/>
                <vehicle id="taxi_v5.0" pos="141.78" speed="8.26"/>
                <vehicle id="taxi_v7.0" pos="240.70" speed="14.78"/>
            </lane>
            <lane id="E0_2">
                <vehicle id="taxi_v22.0" pos="3.10" speed="8.45"/>
                <vehicle id="taxi_v20.0" pos="24.18" speed="10.83"/>
                <vehicle id="taxi_v15.0" pos="48.37" speed="6.44"/>
                <vehicle id="taxi_v14.0" pos="85.31" speed="10.74"/>
            </lane>
            <lane id="E0_3">
                <vehicle id="taxi_v16.0" pos="36.14" speed="6.86"/>
            </lane>
        </edge>
    </timestep>
    <timestep time="23.00">
        <edge id="E0">
            <lane id="E0_0">
                <vehicle id="taxi_v21.0" pos="31.45" speed="14.38"/>
                <vehicle id="taxi_v18.0" pos="80.31" speed="15.63"/>
                <vehicle id="taxi_v13.0" pos="119.48" speed="13.13"/>
                <vehicle id="taxi_v12.0" pos="153.17" speed="14.59"/>
                <vehicle id="taxi_v2.0" pos="181.43" speed="8.47"/>
                <vehicle id="taxi_v8.0" pos="204.46" speed="14.45"/>
                <vehicle id="taxi_v4.0" pos="235.85" speed="12.42"/>
                <vehicle id="taxi_v3.0" pos="277.98" speed="13.89"/>
            </lane>
            <lane id="E0_1">
                <vehicle id="taxi_v10.0" pos="117.02" speed="8.62"/>
                <vehicle id="taxi_v5.0" pos="149.86" speed="8.08"/>
                <vehicle id="taxi_v7.0" pos="255.94" speed="15.24"/>
            </lane>
            <lane id="E0_2">
                <vehicle id="taxi_v22.0" pos="11.40" speed="8.30"/>
                <vehicle id="taxi_v20.0" pos="34.81" speed="10.63"/>
                <vehicle id="taxi_v15.0" pos="55.03" speed="6.65"/>
                <vehicle id="taxi_v14.0" pos="95.84" speed="10.53"/>
            </lane>
            <lane id="E0_3">
                <vehicle id="taxi_v16.0" pos="43.49" speed="7.35"/>
            </lane>
        </edge>
    </timestep>
    <timestep time="24.00">
        <edge id="E0">
            <lane id="E0_0">
                <vehicle id="taxi_v21.0" pos="46.59" speed="15.14"/>
                <vehicle id="taxi_v18.0" pos="95.99" speed="15.68"/>
                <vehicle id="taxi_v13.0" pos="132.56" speed="13.08"/>
                <vehicle id="taxi_v12.0" pos="166.50" speed="13.33"/>
                <vehicle id="taxi_v2.0" pos="189.89" speed="8.46"/>
                <vehicle id="taxi_v8.0" pos="218.99" speed="14.52"/>
                <vehicle id="taxi_v4.0" pos="248.14" speed="12.29"/>
                <vehicle id="taxi_v3.0" pos="291.81" speed="13.83"/>
            </lane>
            <lane id="E0_1">
                <vehicle id="taxi_v10.0" pos="125.96" speed="8.94"/>
                <vehicle id="taxi_v5.0" pos="157.95" speed="8.09"/>
                <vehicle id="taxi_v7.0" pos="271.70" speed="15.76"/>
            </lane>
            <lane id="E0_2">
                <vehicle id="taxi_v22.0" pos="19.73" speed="8.33"/>
                <vehicle id="taxi_v20.0" pos="44.83" speed="10.02"/>
                <vehicle id="taxi_v15.0" pos="61.57" speed="6.54"/>
                <vehicle id="taxi_v14.0" pos="106.25" speed="10.41"/>
            </lane>
            <lane id="E0_3">
                <vehicle id="taxi_v16.0" pos="51.47" speed="7.98"/>
            </lane>
        </edge>
    </timestep>
    <timestep time="25.00">
        <edge id="E0">
            <lane id="E0_0">
                <vehicle id="taxi_v21.0" pos="61.61" speed="15.01"/>
                <vehicle id="taxi_v18.0" pos="111.44" speed="15.45"/>
                <vehicle id="taxi_v13.0" pos="145.55" speed="12.99"/>
                <vehicle id="taxi_v2.0" pos="198.49" speed="8.60"/>
                <vehicle id="taxi_v8.0" pos="233.43" speed="14.44"/>
                <vehicle id="taxi_v4.0" pos="260.42" speed="12.29"/>
                <vehicle id="taxi_v3.0" pos="305.48" speed="13.66"/>
            </lane>
            <lane id="E0_1">
                <vehicle id="taxi_v10.0" pos="134.67" speed="8.70"/>
                <vehicle id="taxi_v5.0" pos="166.08" speed="8.14"/>
                <vehicle id="taxi_v12.0" pos="178.01" speed="11.51"/>
                <vehicle id="taxi_v7.0" pos="287.94" speed="16.23"/>
            </lane>
            <lane id="E0_2">
                <vehicle id="taxi_v22.0" pos="28.04" speed="8.30"/>
                <vehicle id="taxi_v20.0" pos="53.59" speed="8.76"/>
                <vehicle id="taxi_v15.0" pos="68.12" speed="6.55"/>
                <vehicle id="taxi_v14.0" pos="116.87" speed="10.62"/>
            </lane>
            <lane id="E0_3">
                <vehicle id="taxi_v16.0" pos="60.06" speed="8.59"/>
            </lane>
        </edge>
    </timestep>
    <timestep time="26.00">
        <edge id="E0">
            <lane id="E0_0">
                <vehicle id="taxi_v21.0" pos="76.77" speed="15.16"/>
                <vehicle id="taxi_v18.0" pos="126.75" speed="15.31"/>
                <vehicle id="taxi_v13.0" pos="158.56" speed="13.01"/>
                <vehicle id="taxi_v2.0" pos="207.01" speed="8.52"/>
                <vehicle id="taxi_v8.0" pos="247.75" speed="14.32"/>
                <vehicle id="taxi_v4.0" pos="272.52" speed="12.10"/>
                <vehicle id="taxi_v3.0" pos="319.23" speed="13.75"/>
            </lane>
            <lane id="E0_1">
                <vehicle id="taxi_v10.0" pos="143.54" speed="8.87"/>
                <vehicle id="taxi_v5.0" pos="174.17" speed="8.09"/>
                <vehicle id="taxi_v12.0" pos="190.12" speed="12.11"/>
                <vehicle id="taxi_v7.0" pos="304.35" speed="16.42"/>
            </lane>
            <lane id="E0_2">
                <vehicle id="taxi_v22.0" pos="36.23" speed="8.19"/>
                <vehicle id="taxi_v20.0" pos="61.12" speed="7.53"/>
                <vehicle id="taxi_v15.0" pos="74.50" speed="6.38"/>
                <vehicle id="taxi_v14.0" pos="127.32" speed="10.44"/>
            </lane>
            <lane id="E0_3">
                <vehicle id="taxi_v16.0" pos="69.30" speed="9.24"/>
            </lane>
        </edge>
    </timestep>
    <timestep time="27.00">
        <edge id="E0">
            <lane id="E0_0">
                <vehicle id="taxi_v21.0" pos="91.77" speed="15.00"/>
                <vehicle id="taxi_v18.0" pos="142.26" speed="15.50"/>
                <vehicle id="taxi_v13.0" pos="171.34" speed="12.79"/>
                <vehicle id="taxi_v2.0" pos="215.45" speed="8.44"/>
                <vehicle id="taxi_v8.0" pos="261.64" speed="13.89"/>
                <vehicle id="taxi_v4.0" pos="284.90" speed="12.38"/>
                <vehicle id="taxi_v3.0" pos="333.06" speed="13.83"/>
            </lane>
            <lane id="E0_1">
                <vehicle id="taxi_v15.0" pos="80.80" speed="6.30"/>
                <vehicle id="taxi_v10.0" pos="152.27" speed="8.73"/>
                <vehicle id="taxi_v5.0" pos="182.16" speed="7.99"/>
                <vehicle id="taxi_v12.0" pos="202.81" speed="12.69"/>
                <vehicle id="taxi_v7.0" pos="320.61" speed="16.26"/>
            </lane>
            <lane id="E0_2">
                <vehicle id="taxi_v22.0" pos="44.39" speed="8.16"/>
                <vehicle id="taxi_v20.0" pos="68.24" speed="7.12"/>
                <vehicle id="taxi_v14.0" pos="138.08" speed="10.77"/>
            </lane>
            <lane id="E0_3">
                <vehicle id="taxi_v27.0" pos="3.10" speed="9.85"/>
                <vehicle id="taxi_v16.0" pos="79.15" speed="9.85"/>
            </lane>
        </edge>
    </timestep>
    <timestep time="28.00">
        <edge id="E0">
            <lane id="E0_0">
                <vehicle id="taxi_v21.0" pos="106.77" speed="15.01"/>
                <vehicle id="taxi_v18.0" pos="157.80" speed="15.55"/>
                <vehicle id="taxi_v13.0" pos="184.11" speed="12.77"/>
                <vehicle id="taxi_v2.0" pos="223.91" speed="8.46"/>
                <vehicle id="taxi_v8.0" pos="275.30" speed="13.66"/>
                <vehicle id="taxi_v4.0" pos="297.15" speed="12.24"/>
                <vehicle id="taxi_v3.0" pos="346.73" speed="13.67"/>
            </lane>
            <lane id="E0_1">
                <vehicle id="taxi_v28.0" pos="3.10" speed="10.54"/>
                <vehicle id="taxi_v15.0" pos="87.36" speed="6.56"/>
                <vehicle id="taxi_v10.0" pos="161.24" speed="8.97"/>
                <vehicle id="taxi_v5.0" pos="190.31" speed="8.15"/>
                <vehicle id="taxi_v12.0" pos="215.53" speed="12.72"/>
                <vehicle id="taxi_v7.0" pos="336.90" speed="16.29"/>
            </lane>
            <lane id="E0_2">
                <vehicle id="taxi_v22.0" pos="52.80" speed="8.41"/>
                <vehicle id="taxi_v20.0" pos="75.78" speed="7.55"/>
                <vehicle id="taxi_v14.0" pos="148.74" speed="10.65"/>
            </lane>
            <lane id="E0_3">
                <vehicle id="taxi_v27.0" pos="12.97" speed="9.87"/>
                <vehicle id="taxi_v16.0" pos="89.18" speed="10.02"/>
            </lane>
        </edge>
    </timestep>
    <timestep time="29.00">
        <edge id="E0">
            <lane id="E0_0">
                <vehicle id="taxi_v29.0" pos="3.10" speed="12.94"/>
                <vehicle id="taxi_v21.0" pos="121.83" speed="15.06"/>
                <vehicle id="taxi_v18.0" pos="172.45" speed="14.65"/>
                <vehicle id="taxi_v13.0" pos="197.00" speed="12.89"/>
                <vehicle id="taxi_v2.0" pos="232.41" speed="8.50"/>
                <vehicle id="taxi_v8.0" pos="288.84" speed="13.54"/>
                <vehicle id="taxi_v4.0" pos="309.29" speed="12.15"/>
                <vehicle id="taxi_v3.0" pos="360.54" speed="13.82"/>
            </lane>
            <lane id="E0_1">
                <vehicle id="taxi_v28.0" pos="14.14" speed="11.04"/>
                <vehicle id="taxi_v15.0" pos="93.96" speed="6.60"/>
                <vehicle id="taxi_v10.0" pos="170.04" speed="8.79"/>
                <vehicle id="taxi_v5.0" pos="198.33" speed="8.01"/>
                <vehicle id="taxi_v12.0" pos="228.55" speed="13.02"/>
                <vehicle id="taxi_v7.0" pos="353.18" speed="16.28"/>
            </lane>
            <lane id="E0_2">
                <vehicle id="taxi_v22.0" pos="60.91" speed="8.10"/>
                <vehicle id="taxi_v20.0" pos="83.83" speed="8.04"/>
                <vehicle id="taxi_v16.0" pos="99.36" speed="10.18"/>
                <vehicle id="taxi_v14.0" pos="159.48" speed="10.74"/>
            </lane>
            <lane id="E0_3">
                <vehicle id="taxi_v27.0" pos="22.58" speed="9.62"/>
            </lane>
        </edge>
    </timestep>
    <timestep time="30.00">
        <edge id="E0">
            <lane id="E0_0">
                <vehicle id="taxi_v29.0" pos="16.06" speed="12.96"/>
                <vehicle id="taxi_v21.0" pos="136.81" speed="14.98"/>
                <vehicle id="taxi_v10.0" pos="178.86" speed="8.83"/>
                <vehicle id="taxi_v18.0" pos="186.89" speed="14.43"/>
                <vehicle id="taxi_v13.0" pos="209.81" speed="12.80"/>
                <vehicle id="taxi_v2.0" pos="241.04" speed="8.63"/>
                <vehicle id="taxi_v8.0" pos="301.64" speed="12.80"/>
                <vehicle id="taxi_v4.0" pos="321.67" speed="12.38"/>
                <vehicle id="taxi_v3.0" pos="374.21" speed="13.67"/>
            </lane>
            <lane id="E0_1">
                <vehicle id="taxi_v28.0" pos="25.62" speed="11.48"/>
                <vehicle id="taxi_v22.0" pos="69.32" speed="8.41"/>
                <vehicle id="taxi_v15.0" pos="100.30" speed="6.34"/>
                <vehicle id="taxi_v5.0" pos="206.65" speed="8.32"/>
                <vehicle id="taxi_v12.0" pos="241.30" speed="12.75"/>
                <vehicle id="taxi_v7.0" pos="369.45" speed="16.27"/>
            </lane>
            <lane id="E0_2">